
Host: pn1933602.lanl.gov

Timers On : Sat Jul  6 21:43:43 2019
Timers Off: Sat Jul  6 21:43:47 2019

Wall Time:        3.94 seconds

                                                       Time (seconds)
Module                                       User      System        Wall        Calls

--------------------------------------------------------------------------------------

**************************************************************************************
